# vtk DataFile Version 3.0
Point representing Sub_cellular elem model
ASCII

DATASET UNSTRUCTURED_GRID
POINTS 50109 float
7.33593 6.49821 9.97279 
3.93887 7.96567 6.80130 
3.89102 8.55194 4.03397 
4.15194 7.72742 7.58637 
4.71363 0.80775 6.81799 
4.75841 2.27874 5.47048 
0.84635 8.97150 6.78970 
1.54840 7.00810 5.64680 
3.02094 4.60130 9.05786 
5.28853 7.47138 1.31003 
5.62150 8.84397 9.06916 
2.00705 4.96659 0.55311 
0.69178 1.59020 0.28543 
1.30060 3.33300 7.44310 
8.78905 2.67871 7.22850 
2.32347 3.04141 9.84172 
0.95025 5.13080 8.30190 
2.50345 4.97611 3.08885 
8.88417 4.48157 1.85847 
5.25943 9.06520 8.63308 
8.42550 1.02570 2.83310 
1.57370 9.11880 5.06080 
7.88501 0.84465 0.67584 
1.62960 1.40590 5.20820 
7.39937 8.02901 9.25961 
8.44430 4.81820 6.02870 
6.34857 2.84432 0.94449 
3.99485 1.56444 2.83194 
6.37127 5.02467 7.08690 
4.66455 4.56940 3.25129 
8.73260 8.89320 3.22010 
7.20194 8.18375 5.22423 
1.92200 7.19760 4.74720 
9.11710 4.63530 7.36250 
2.80883 1.39033 7.31714 
2.87296 8.58089 4.43428 
3.23708 1.09625 8.19900 
7.40606 1.77705 7.23490 
0.98776 3.19030 7.99990 
2.51392 1.32933 8.07859 
0.71991 1.95120 3.04010 
6.72872 2.65245 0.07057 
5.38331 8.24141 8.81546 
1.75030 7.35840 6.67080 
4.82571 2.42925 8.87830 
4.96768 7.48569 6.43216 
9.59290 7.99410 6.42110 
8.84290 6.89020 1.55760 
6.82767 4.86854 5.48498 
5.23805 3.58189 1.58965 
9.17420 7.63510 9.49930 
3.45213 7.88031 6.63155 
9.05870 4.70410 1.19430 
3.07176 1.83121 1.36547 
4.82801 2.46368 6.92011 
7.92102 9.01109 0.22601 
8.39750 3.67560 1.81440 
3.25015 3.88622 0.51059 
6.82861 7.63044 3.99464 
4.45447 1.19698 5.72063 
7.43325 7.60237 1.44142 
1.58600 5.13110 7.97280 
4.81425 6.73817 2.60817 
1.19620 3.57150 0.08078 
7.95814 9.79497 8.66380 
6.77550 8.67876 4.26094 
3.50470 6.81182 8.45320 
2.84585 4.68757 1.49761 
8.39680 9.17980 7.64460 
5.54278 4.42937 7.84049 
5.76490 4.97023 1.40994 
2.42729 5.29954 8.34394 
5.63484 5.44335 9.78245 
8.67810 1.66230 2.79160 
0.62222 8.47110 7.56280 
3.52055 6.76569 5.87874 
1.53080 6.38860 5.25340 
3.91481 2.67548 6.71747 
8.87520 0.66311 9.45840 
7.60102 5.89371 9.70265 
5.03689 1.48923 9.62683 
7.57513 7.84284 4.73419 
6.66027 5.69087 5.48816 
5.13065 6.34714 6.77741 
8.55800 8.91170 1.70590 
5.25006 3.41907 0.28347 
7.90498 4.44714 2.63652 
8.57570 5.31830 2.45040 
8.69630 6.24770 7.02690 
2.06585 1.63330 5.45668 
3.20303 5.41191 0.89932 
2.43792 5.60198 7.13069 
4.97834 1.85189 7.57896 
1.75920 0.31975 9.46190 
1.67300 4.22890 1.96110 
3.20187 3.79693 5.86806 
3.46073 2.07747 5.17805 
6.45835 4.11281 0.69756 
9.56370 8.19690 4.22550 
4.83420 6.98560 5.39400 
5.44683 8.03908 4.68710 
2.00187 8.86460 8.36769 
8.49960 4.25870 1.85550 
0.74958 0.30472 2.53540 
6.05135 8.23084 2.72076 
4.77402 7.23894 9.37627 
4.27432 5.29389 4.01004 
5.68250 9.17002 1.98723 
7.60369 1.21234 0.26941 
0.38381 2.09870 2.09640 
1.35470 2.78770 2.77660 
8.09440 4.35350 3.43920 
1.87680 2.78700 2.04300 
5.98603 2.76074 6.39410 
7.31638 4.28078 2.62310 
5.09586 2.51493 5.09955 
0.34226 8.16990 0.42924 
5.62847 7.03682 6.18627 
9.04150 7.08630 1.99090 
4.28910 1.10232 3.32821 
6.44506 7.86290 1.69715 
1.00190 2.99400 2.56920 
8.87820 7.59290 3.40260 
8.84490 3.11420 7.74350 
2.61414 8.81624 7.14224 
9.54380 8.14520 5.57820 
8.33620 0.32132 1.14490 
8.81140 6.19450 7.62920 
4.89587 4.43300 6.22408 
6.00839 8.85210 5.21679 
5.96490 4.02450 2.21999 
3.26761 4.81338 5.28688 
9.14470 3.17480 5.68600 
7.87234 5.37740 8.73927 
3.28623 3.58905 9.83875 
7.10694 2.03697 9.80825 
1.68800 7.06010 1.86750 
6.82384 3.05987 8.17316 
4.00579 1.34792 3.17069 
7.78169 2.76361 4.11474 
1.81800 5.21040 0.44497 
3.64917 7.28824 2.06084 
5.66604 6.58486 0.73194 
8.84300 3.26690 1.31140 
3.74350 1.08649 2.78426 
8.81990 8.47050 6.40450 
1.03660 6.96900 7.30430 
1.53880 4.01700 2.41740 
0.16836 7.67130 1.05060 
2.67302 3.34890 9.34438 
3.26688 6.99401 7.45188 
6.38810 7.13603 5.39383 
5.60901 8.63214 1.78587 
6.46736 4.74828 5.50078 
7.34609 2.06164 9.50422 
6.59662 7.60378 7.74791 
8.39530 8.87810 2.30890 
0.72745 5.54570 4.50830 
0.44630 0.16355 6.39820 
7.33377 4.48747 5.90756 
4.45062 4.68818 1.21318 
9.21430 1.89370 8.91300 
2.73356 2.85886 3.17990 
3.11472 6.86508 8.07774 
5.23279 8.54984 2.25335 
6.46848 5.08444 7.21067 
1.56070 6.76260 4.76590 
8.15410 5.66130 3.44210 
5.86957 6.78279 1.30429 
0.92048 9.80250 8.06390 
5.52531 2.38961 2.84771 
0.44121 2.07180 9.47480 
7.40269 2.11273 2.26827 
2.39248 2.28796 4.35379 
6.36509 6.94644 0.53080 
8.30590 8.40780 4.20370 
5.15387 2.14371 7.60252 
5.27776 2.07070 7.39820 
8.33050 2.30480 2.01450 
5.90732 0.06244 6.24013 
8.52130 1.85310 1.94980 
7.15693 7.62028 8.31757 
7.15406 5.31545 1.00583 
7.58475 1.75739 9.41886 
2.07801 9.16416 4.31625 
6.15341 1.93178 0.72293 
5.30128 2.29949 0.57580 
3.08399 6.05434 0.73491 
6.13261 6.29892 1.93936 
9.16700 1.70000 2.75100 
9.21220 7.02630 9.28640 
1.85660 1.23170 8.79230 
1.01550 6.26100 9.16080 
8.33570 4.66510 6.46180 
5.99754 8.23917 1.68900 
6.95547 2.62775 1.38613 
1.18470 2.35800 3.22340 
2.53391 2.75045 9.28749 
6.13812 0.52107 3.53163 
8.04860 8.38230 6.00830 
3.18276 4.08295 2.01081 
2.87532 2.40805 8.63677 
4.84136 1.90266 0.71166 
1.74110 1.18290 0.52125 
6.98600 6.71887 9.03360 
3.29323 5.71341 3.89387 
0.03716 2.83090 3.03990 
2.31387 3.21445 0.14727 
7.04547 8.32607 6.35793 
3.65017 5.36278 5.32616 
6.15616 6.67644 9.52560 
5.37947 4.61266 0.07772 
9.16820 5.90070 6.59600 
3.33839 9.09509 5.05555 
9.12640 9.10940 0.17210 
5.84381 2.72705 9.80564 
6.54143 8.47723 5.05179 
1.73630 5.41620 8.71080 
7.53285 3.08053 3.45030 
2.06341 0.54287 8.56716 
3.74390 1.80935 7.93764 
3.60019 1.66757 9.62657 
5.49382 1.57540 8.58175 
8.60520 1.34960 0.12280 
9.44810 6.42050 0.51071 
1.25610 6.29420 5.97870 
5.58231 0.03510 1.22012 
1.40600 9.07130 9.15540 
1.54860 1.83000 1.74290 
4.43515 5.93764 9.09632 
8.15910 2.92250 8.79850 
6.76477 3.07285 4.77844 
3.49634 4.32410 5.47416 
4.58893 6.17380 3.51358 
5.36109 6.09235 3.37300 
4.78310 7.96739 0.65807 
7.37938 6.49302 1.93781 
3.88700 2.18864 0.69585 
6.74920 7.69460 9.62702 
1.52320 7.10210 5.80390 
1.00530 1.49720 9.52800 
6.17590 1.07834 6.25724 
8.96430 5.05730 8.08760 
4.26309 7.76853 3.77133 
7.13215 9.96470 8.67731 
0.13261 6.61220 0.41062 
8.86990 3.32140 9.77010 
7.25910 2.00980 3.01927 
5.72379 5.24715 3.01102 
4.58149 0.91776 7.38532 
1.66360 6.74410 1.45670 
8.20690 8.91060 1.86420 
4.87917 8.13312 5.62899 
3.77075 3.73659 4.45042 
5.25136 2.52399 9.14808 
0.76443 1.49710 5.98630 
3.62434 2.27171 2.85025 
6.15676 9.25081 8.89891 
9.11460 3.60970 8.49340 
1.95810 4.20930 2.68190 
4.99889 1.36408 7.99183 
1.72300 4.47470 9.34310 
3.80065 2.45570 4.32252 
1.16830 1.43550 5.75060 
1.09960 8.27390 5.68930 
8.09610 3.99010 3.42700 
1.91540 3.51140 7.03220 
5.25993 2.06854 0.80487 
0.03533 6.29020 0.52144 
3.31234 2.19910 7.35637 
7.86175 3.18354 0.55520 
6.07902 6.28931 1.27718 
9.17000 1.43540 1.96910 
4.03953 4.06340 2.14358 
2.04496 8.95856 5.37668 
1.28390 0.86726 2.89150 
1.62390 7.54030 1.66150 
5.75111 5.17947 9.26941 
5.90744 1.36674 7.82430 
7.79873 7.71060 9.61879 
9.74800 3.53670 4.19960 
3.79254 8.61566 1.26523 
0.69523 5.40830 7.20090 
7.98432 4.76878 4.81877 
5.77779 5.54626 6.48339 
6.98226 8.78747 5.06333 
1.13240 3.80990 3.69440 
4.37232 5.77923 0.46136 
5.25500 1.77874 4.96887 
8.28760 3.79410 1.30240 
6.01747 2.87880 6.64424 
9.42550 6.48710 2.36390 
7.65110 5.40993 9.83049 
2.38050 6.88406 4.95815 
9.05010 3.22860 5.88990 
2.89474 4.09604 4.44101 
2.40804 8.70783 3.76531 
3.39244 3.92569 5.13759 
4.20754 6.16695 4.83583 
8.52970 3.82550 9.96020 
2.51964 0.41484 4.67983 
1.78220 3.68330 8.98240 
2.94100 5.97630 7.96316 
4.74628 4.43461 6.85773 
2.84710 8.67455 3.45094 
6.20829 5.72038 0.24880 
2.22349 8.31959 8.87405 
7.32178 8.41645 2.59633 
8.85540 4.21150 9.54220 
8.45240 3.79220 0.93531 
3.89352 7.37044 5.14060 
4.08322 6.22420 8.88147 
6.97773 6.61965 1.25393 
2.17090 1.67626 3.94671 
2.57657 7.87484 7.58207 
3.37166 6.38744 8.55100 
1.77500 7.33010 7.60790 
4.94596 5.91124 1.50003 
7.78935 3.90907 5.80208 
5.44559 7.10306 4.55881 
6.41639 5.17791 8.04652 
2.20561 7.85485 7.36465 
2.92868 1.31277 4.06316 
2.50633 8.61008 3.89956 
6.25408 5.84631 7.23871 
9.02690 6.91560 6.48300 
2.00151 2.14686 9.12497 
3.19771 2.71950 4.03283 
2.18800 4.67065 0.82182 
4.92771 3.47471 8.65121 
6.07422 8.01955 7.84055 
0.62751 3.29060 5.08050 
2.49698 0.69382 2.36339 
2.47547 3.51421 8.98202 
0.73561 4.86500 6.17200 
5.98928 2.77993 0.76748 
1.70360 6.45370 4.52700 
7.57175 8.16255 2.21562 
2.87614 3.54991 4.08328 
2.14164 2.94006 6.78345 
7.60223 4.03177 0.02565 
6.25630 6.92971 2.80140 
0.97069 3.25540 9.81290 
1.61090 3.34620 4.40550 
4.32873 2.18859 2.50434 
8.08730 0.04512 9.47080 
8.10190 7.84210 6.35910 
1.46180 8.07030 1.94580 
8.10740 6.70980 0.41889 
8.70100 4.84170 6.28110 
7.95168 3.85314 0.91626 
3.68309 4.30982 9.79021 
6.31889 1.52378 0.14522 
2.68286 2.24273 2.74759 
2.37097 2.16171 3.51904 
7.84223 5.64298 8.32807 
2.03750 3.49075 0.15848 
0.37457 5.34340 6.43870 
1.31290 1.12050 9.23830 
4.64943 7.18891 5.82452 
1.64460 5.21810 7.64350 
5.02853 3.65992 5.22881 
8.90180 7.31080 2.79790 
3.21972 6.48536 0.74130 
7.50045 8.10403 5.56138 
2.24418 7.20075 0.93607 
9.08420 4.73440 8.12500 
2.11833 4.87103 1.44851 
8.06000 4.25880 5.34300 
5.15163 0.17581 9.65342 
1.64700 0.93946 5.96260 
3.24593 8.43864 3.85298 
1.64890 2.55160 9.15410 
2.52338 0.82512 0.79791 
6.86610 8.65911 5.59662 
2.47780 2.02082 9.93692 
9.05550 0.43743 9.30560 
4.85847 7.58394 7.18084 
7.51697 9.01679 1.92523 
1.55840 7.52110 9.35690 
2.90602 0.53893 3.13190 
8.71130 8.10940 0.71175 
2.92017 3.00069 2.64714 
6.32630 6.81821 0.03016 
6.52879 4.34583 8.11592 
1.43970 5.62160 4.53900 
2.72208 3.32261 8.97583 
1.53280 2.28210 0.12716 
6.92721 6.65679 1.71065 
1.51330 4.88980 0.04120 
6.55082 6.10667 0.81857 
8.44350 5.52960 5.08930 
9.18640 5.47660 4.76900 
8.96790 4.23720 4.10440 
9.29950 5.70420 5.21570 
[...]
CELL_DATA 50173
SCALARS Fiber_Strain double 
LOOKUP_TABLE default 
0.00050
0.00066
-0.00004
0.00079
-0.00036
0.00005
0.00089
-0.00029
0.00099
0.00089
0.00048
0.00159
-0.00011
0.00017
0.00044
0.00064
0.00000
0.00030
-0.00011
-0.00010
0.00019
-0.00029
-0.00021
0.00021
0.00089
0.00033
-0.00037
-0.00081
-0.00035
-0.00096
0.00054
-0.00044
-0.00038
-0.00068
0.00120
0.00033
0.00051
0.00054
-0.00040
-0.00076
-0.00015
0.00080
-0.00013
-0.00077
-0.00002
0.00026
-0.00083
0.00076
-0.00100
-0.00050
0.00123
0.00022
-0.00074
-0.00044
-0.00124
0.00028
0.00155
-0.00010
-0.00035
0.00059
0.00087
0.00090
-0.00073
-0.00069
-0.00128
-0.00044
-0.00020
-0.00092
-0.00058
-0.00048
-0.00069
-0.00033
-0.00032
0.00021
0.00049
-0.00043
-0.00058
0.00077
-0.00032
-0.00055
0.00001
0.00045
-0.00052
0.00128
-0.00075
-0.00097
0.00046
0.00024
0.00027
0.00111
0.00019
0.00031
-0.00014
-0.00039
0.00056
0.00014
0.00053
-0.00026
-0.00063
0.00059
0.00051
-0.00060
0.00093
-0.00035
0.00007
0.00032
0.00030
0.00033
0.00033
0.00026
0.00038
0.00043
0.00048
0.00036
-0.00021
0.00008
0.00005
0.00008
0.00027
0.00022
0.00022
0.00007
0.00012
0.00003
0.00008
0.00012
0.00019
0.00023
0.00013
0.00008
-0.00039
-0.00021
-0.00007
0.00024
-0.00026
-0.00049
-0.00035
-0.00007
-0.00043
-0.00010
0.00013
0.00007
-0.00009
0.00024
0.00008
-0.00073
-0.00050
-0.00028
-0.00003
-0.00012
-0.00028
-0.00052
-0.00061
-0.00047
-0.00040
-0.00096
0.00002
0.00027
-0.00037
-0.00021
0.00013
0.00026
-0.00036
-0.00074
-0.00064
-0.00056
-0.00064
0.00027
0.00021
0.00041
0.00043
-0.00001
0.00011
0.00012
0.00025
0.00023
0.00035
0.00068
0.00055
-0.00016
-0.00021
-0.00163
-0.00016
0.00078
-0.00036
0.00046
0.00249
-0.00090
-0.00069
-0.00110
-0.00042
0.00087
0.00005
0.00010
-0.00214
-0.00070
-0.00034
-0.00069
-0.00103
-0.00028
-0.00054
-0.00125
0.00037
-0.00031
-0.00179
-0.00029
0.00037
0.00049
-0.00027
-0.00019
-0.00004
0.00018
-0.00020
-0.00007
-0.00009
-0.00000
-0.00002
0.00003
-0.00002
-0.00008
-0.00003
0.00084
-0.00085
-0.00076
0.00052
-0.00025
0.00004
0.00078
0.00150
0.00113
-0.00100
-0.00018
-0.00102
-0.00166
-0.00048
0.00001
0.00035
0.00171
-0.00065
0.00038
-0.00015
0.00085
-0.00129
0.00137
-0.00038
-0.00013
-0.00018
-0.00151
-0.00186
0.00133
-0.00041
0.00004
-0.00021
-0.00021
-0.00025
-0.00012
-0.00044
-0.00111
-0.00021
-0.00012
0.00027
-0.00021
-0.00052
-0.00046
-0.00005
-0.00021
0.00033
-0.00020
-0.00056
-0.00038
0.00012
-0.00061
0.00000
0.00003
0.00091
0.00057
0.00023
0.00037
0.00030
0.00025
-0.00003
-0.00007
-0.00007
-0.00006
-0.00032
-0.00008
-0.00088
0.00015
0.00017
0.00020
0.00023
-0.00002
0.00016
0.00009
-0.00013
0.00009
0.00010
-0.00050
-0.00058
-0.00015
-0.00003
-0.00006
0.00001
0.00004
0.00003
0.00001
-0.00007
0.00058
0.00044
0.00018
0.00273
-0.00112
-0.00103
-0.00066
-0.00075
-0.00265
-0.00042
0.00111
0.00029
-0.00166
0.00075
-0.00004
0.00076
0.00091
-0.00112
-0.00040
0.00248
0.00102
0.00024
0.00110
0.00042
0.00008
-0.00089
0.00006
0.00003
-0.00110
0.00191
0.00054
-0.00125
-0.00085
-0.00154
0.00048
-0.00043
0.00108
-0.00126
-0.00025
0.00084
-0.00234
0.00027
-0.00071
0.00077
-0.00079
-0.00045
0.00172
-0.00037
0.00002
0.00192
0.00071
-0.00184
-0.00087
0.00115
0.00112
0.00016
0.00008
-0.00034
0.00039
-0.00095
0.00036
-0.00008
-0.00031
0.00044
-0.00091
0.00082
0.00004
-0.00001
-0.00039
0.00002
-0.00053
-0.00133
-0.00048
-0.00118
-0.00045
-0.00017
-0.00021
-0.00159
-0.00178
0.00092
-0.00096
0.00139
-0.00070
-0.00023
0.00008
0.00011
-0.00032
0.00087
0.00123
-0.00176
0.00108
0.00028
0.00024
0.00159
0.00079
-0.00116
-0.00052
-0.00004
-0.00021
0.00036
0.00035
0.00016
-0.00099
0.00003
0.00051
-0.00094
-0.00012
0.00079
0.00078
0.00022
0.00004
-0.00000
0.00020
0.00067
-0.00009
0.00034
0.00048
0.00010
0.00039
0.00043
0.00015
0.00068
0.00070
0.00027
-0.00018
0.00050
0.00010
0.00011
0.00059
0.00029
0.00037
0.00014
0.00016
0.00028
-0.00028
0.00021
-0.00011
-0.00057
0.00058
0.00008
-0.00001
0.00013
0.00004
-0.00016
-0.00057
0.00016
-0.00004
0.00024
0.00022
0.00007
-0.00045
0.00015
-0.00034
-0.00034
0.00015
0.00016
-0.00030
-0.00016
-0.00012
0.00043
0.00053
0.00040
0.00088
-0.00000
0.00048
0.00030
0.00108
0.00060
0.00044
0.00047
0.00077
0.00072
0.00067
0.00089
0.00137
0.00136
0.00136
0.00127
0.00145
0.00103
0.00069
0.00086
0.00093
0.00105
0.00130
0.00059
0.00085
0.00068
0.00084
0.00117
0.00074
0.00035
0.00053
0.00092
0.00092
0.00128
0.00071
0.00083
0.00022
0.00113
0.00082
0.00065
0.00081
0.00085
0.00139
0.00054
0.00084
0.00033
0.00023
0.00061
0.00073
0.00159
0.00082
0.00003
-0.00034
0.00040
0.00038
0.00192
-0.00040
0.00018
0.00071
0.00054
-0.00022
-0.00052
-0.00033
0.00042
0.00061
0.00086
0.00004
0.00032
-0.00097
0.00091
0.00024
0.00028
-0.00030
-0.00082
0.00010
0.00073
0.00005
0.00093
-0.00016
-0.00128
-0.00114
0.00095
0.00131
-0.00100
-0.00023
-0.00002
0.00086
0.00068
0.00067
-0.00009
0.00043
0.00203
-0.00022
-0.00002
-0.00006
0.00025
0.00065
0.00046
-0.00017
0.00014
-0.00032
0.00014
0.00127
-0.00117
-0.00025
0.00101
-0.00032
-0.00024
-0.00001
-0.00070
0.00141
-0.00003
-0.00027
-0.00001
0.00020
0.00003
0.00133
-0.00188
-0.00161
-0.00080
-0.00020
0.00038
-0.00159
0.00033
-0.00051
0.00147
0.00038
0.00027
-0.00085
0.00064
-0.00070
-0.00035
-0.00064
0.00033
-0.00004
0.00033
-0.00038
-0.00040
-0.00079
0.00093
-0.00028
-0.00002
-0.00013
-0.00059
-0.00058
0.00017
-0.00033
-0.00045
-0.00012
0.00032
-0.00051
-0.00036
-0.00110
-0.00152
0.00026
-0.00096
-0.00058
0.00056
-0.00002
-0.00024
-0.00079
-0.00028
0.00001
-0.00058
-0.00026
-0.00053
-0.00108
-0.00069
-0.00031
0.00068
0.00033
-0.00082
0.00164
-0.00078
0.00031
0.00035
0.00049
0.00137
0.00172
-0.00165
0.00135
-0.00004
-0.00022
0.00021
0.00080
0.00027
0.00068
-0.00003
-0.00030
-0.00024
0.00227
0.00009
0.00023
-0.00022
0.00052
0.00054
0.00057
0.00032
-0.00012
0.00154
-0.00074
0.00046
-0.00213
-0.00064
-0.00130
-0.00051
-0.00064
0.00074
-0.00099
-0.00009
-0.00365
-0.00050
0.00178
-0.00004
0.00066
-0.00051
-0.00040
-0.00011
0.00027
-0.00053
-0.00019
-0.00065
0.00001
-0.00001
-0.00017
-0.00034
-0.00091
0.00068
-0.00005
-0.00056
-0.00045
-0.00009
0.00017
-0.00030
-0.00005
0.00041
0.00021
-0.00060
-0.00051
0.00157
-0.00065
0.00052
-0.00034
-0.00059
0.00070
0.00101
0.00050
0.00003
-0.00069
0.00007
-0.00066
0.00114
0.00165
0.00063
0.00028
0.00103
0.00076
-0.00060
0.00017
-0.00084
-0.00002
-0.00106
0.00142
0.00093
0.00148
-0.00022
0.00030
-0.00034
0.00041
0.00017
0.00041
-0.00041
0.00007
-0.00008
-0.00051
0.00067
0.00065
-0.00014
0.00042
0.00046
-0.00042
0.00113
-0.00014
-0.00037
-0.00026
-0.00003
0.00026
-0.00068
-0.00146
-0.00011
-0.00077
0.00021
-0.00148
-0.00020
-0.00053
-0.00086
-0.00008
-0.00001
0.00004
0.00031
-0.00029
0.00045
0.00055
0.00036
-0.00042
-0.00028
0.00021
-0.00010
-0.00003
-0.00003
-0.00071
-0.00046
-0.00006
0.00014
-0.00004
0.00032
0.00090
0.00004
0.00029
0.00083
-0.00030
0.00101
0.00031
-0.00096
-0.00024
0.00084
-0.00088
-0.00053
-0.00106
0.00089
-0.00129
-0.00019
-0.00066
-0.00026
0.00009
-0.00003
0.00039
-0.00024
-0.00066
0.00058
-0.00041
0.00152
-0.00020
0.00033
-0.00072
0.00014
0.00060
0.00033
-0.00058
-0.00022
0.00034
0.00015
-0.00091
0.00066
-0.00070
0.00024
0.00049
0.00044
0.00042
0.00073
0.00057
0.00038
-0.00135
0.00009
0.00051
0.00064
-0.00057
0.00001
-0.00005
0.00073
0.00046
-0.00143
0.00095
0.00233
-0.00159
-0.00072
-0.00042
0.00048
0.00030
0.00106
-0.00113
-0.00092
0.00179
-0.00063
-0.00077
0.00031
-0.00062
-0.00060
0.00190
0.00118
-0.00028
0.00116
-0.00007
0.00005
0.00049
0.00021
0.00125
0.00061
0.00095
0.00029
0.00019
-0.00015
-0.00030
0.00018
-0.00010
0.00058
-0.00046
0.00003
0.00066
-0.00026
0.00057
0.00072
-0.00060
0.00026
-0.00014
-0.00059
-0.00009
0.00041
0.00016
-0.00012
-0.00077
-0.00045
-0.00097
-0.00013
-0.00111
-0.00068
-0.00002
-0.00062
-0.00006
0.00046
0.00007
-0.00008
-0.00108
0.00014
0.00049
-0.00048
0.00008
0.00037
-0.00085
0.00020
0.00031
-0.00026
0.00067
-0.00022
0.00074
0.00009
0.00108
0.00102
0.00026
0.00014
0.00026
0.00052
0.00091
0.00089
0.00085
0.00104
-0.00007
0.00008
-0.00003
-0.00012
0.00060
0.00035
0.00041
0.00116
0.00139
0.00060
0.00029
0.00108
-0.00046
0.00159
0.00054
-0.00060
0.00046
0.00070
0.00088
0.00030
-0.00016
0.00004
0.00024
-0.00159
0.00097
0.00098
-0.00031
0.00054
-0.00201
0.00068
0.00078
-0.00070
0.00149
-0.00056
-0.00076
-0.00178
-0.00037
-0.00098
0.00108
0.00075
0.00112
0.00139
-0.00030
0.00233
0.00021
-0.00063
0.00097
-0.00116
0.00179
0.00021
0.00156
0.00021
0.00087
-0.00108
-0.00019
0.00032
0.00102
0.00154
0.00100
-0.00091
0.00240
0.00136
0.00004
0.00057
-0.00111
-0.00092
0.00061
0.00107
0.00191
0.00125
0.00152
0.00263
0.00117
0.00132
-0.00090
0.00153
-0.00013
0.00076
-0.00066
-0.00136
0.00094
0.00123
-0.00175
-0.00008
0.00044
0.00049
0.00080
-0.00001
-0.00011
0.00151
-0.00017
-0.00067
0.00064
0.00003
-0.00106
0.00004
0.00085
0.00029
-0.00103
0.00038
-0.00022
0.00059
0.00411
0.00233
-0.00027
0.00073
0.00023
0.00127
0.00133
0.00184
-0.00039
0.00068
0.00097
-0.00018
-0.00146
0.00127
0.00103
0.00144
0.00050
0.00072
0.00076
0.00104
0.00202
-0.00008
0.00089
0.00060
0.00086
0.00081
0.00052
-0.00012
-0.00006
0.00016
0.00020
0.00004
0.00006
-0.00028
0.00007
0.00011
-0.00017
0.00022
-0.00006
0.00008
0.00036
0.00024
-0.00003
0.00070
-0.00060
0.00044
0.00030
0.00007
0.00050
0.00035
0.00021
0.00028
0.00047
0.00070
0.00050
0.00008
0.00028
0.00075
0.00015
0.00052
-0.00010
-0.00009
0.00119
-0.00046
-0.00115
0.00016
-0.00023
0.00024
0.00039
-0.00034
-0.00010
-0.00046
0.00193
0.00073
0.00032
-0.00042
0.00231
0.00153
0.00002
0.00102
-0.00027
0.00017
0.00025
-0.00014
-0.00023
0.00016
-0.00019
-0.00003
0.00033
0.00043
0.00060
0.00061
0.00077
0.00036
0.00066
0.00058
0.00077
0.00022
0.00053
-0.00016
0.00068
0.00041
-0.00004
-0.00019
0.00034
0.00092
0.00092
-0.00013
0.00017
0.00013
0.00016
0.00025
0.00030
0.00004
0.00029
-0.00039
0.00017
-0.00048
0.00012
-0.00006
-0.00006
0.00002
0.00048
-0.00008
0.00037
0.00057
0.00039
0.00044
0.00026
-0.00076
0.00054
0.00034
-0.00022
-0.00003
-0.00033
0.00040
0.00029
0.00097
0.00073
0.00057
0.00027
0.00093
0.00072
0.00040
0.00080
0.00070
0.00058
0.00117
-0.00006
-0.00000
-0.00039
0.00041
0.00030
0.00043
0.00028
0.00044
0.00049
-0.00047
-0.00050
-0.00005
-0.00045
0.00026
-0.00026
0.00004
-0.00002
-0.00010
0.00032
-0.00058
-0.00001
0.00072
-0.00023
0.00046
0.00059
0.00048
-0.00033
0.00117
-0.00009
-0.00004
0.00078
0.00119
-0.00028
-0.00023
-0.00031
-0.00019
0.00026
-0.00030
0.00043
0.00047
0.00042
-0.00027
0.00055
0.00013
-0.00017
-0.00065
0.00083
-0.00010
-0.00071
-0.00065
-0.00011
-0.00037
-0.00029
-0.00054
-0.00117
-0.00107
0.00079
-0.00121
0.00086
0.00029
0.00103
0.00148
0.00025
0.00135
-0.00019
0.00045
0.00011
0.00081
0.00089
0.00057
0.00144
-0.00136
-0.00073
0.00096
0.00108
-0.00009
0.00065
0.00024
-0.00052
0.00088
0.00147
0.00110
0.00086
0.00032
0.00006
0.00120
-0.00074
0.00032
0.00078
0.00124
0.00171
0.00125
0.00066
-0.00038
-0.00134
-0.00015
-0.00008
-0.00132
0.00115
0.00055
-0.00088
0.00138
0.00063
0.00143
-0.00068
-0.00022
0.00024
-0.00049
-0.00080
0.00037
0.00056
0.00096
-0.00024
0.00037
-0.00020
0.00024
0.00026
-0.00296
0.00043
0.00000
-0.00034
0.00025
-0.00081
-0.00008
-0.00078
-0.00167
0.00028
-0.00168
-0.00039
0.00057
-0.00063
0.00151
0.00018
0.00072
0.00176
0.00008
0.00067
0.00132
0.00144
0.00030
0.00061
0.00086
-0.00140
0.00095
0.00102
0.00069
0.00043
0.00073
0.00194
0.00200
-0.00060
-0.00095
0.00203
0.00004
-0.00239
0.00225
0.00164
0.00204
-0.00200
0.00328
0.00024
-0.00025
0.00117
0.00025
0.00261
0.00093
0.00017
0.00099
-0.00019
0.00093
0.00086
-0.00071
0.00097
0.00067
-0.00079
0.00084
0.00050
0.00184
-0.00028
0.00137
0.00002
-0.00083
-0.00021
0.00106
0.00019
-0.00064
-0.00124
-0.00022
0.00155
0.00031
-0.00141
0.00058
0.00075
0.00048
0.00059
-0.00182
-0.00116
0.00158
0.00014
-0.00145
0.00016
0.00187
-0.00059
-0.00051
0.00223
0.00161
0.00031
-0.00039
0.00049
-0.00024
0.00024
0.00012
-0.00303
-0.00010
-0.00011
-0.00015
0.00007
-0.00071
-0.00024
-0.00036
-0.00002
0.00028
0.00014
0.00027
-0.00019
-0.00011
-0.00010
-0.00023
-0.00003
-0.00081
-0.00079
0.00192
-0.00051
0.00060
0.00031
-0.00015
-0.00037
0.00064
0.00079
0.00007
0.00110
0.00040
0.00016
0.00001
0.00027
-0.00172
-0.00051
0.00073
-0.00183
-0.00033
-0.00040
-0.00004
0.00070
-0.00006
0.00015
0.00007
-0.00003
-0.00015
0.00015
-0.00010
-0.00002
0.00102
0.00014
0.00051
0.00052
0.00010
0.00120
0.00120
0.00007
0.00111
0.00086
0.00114
0.00000
0.00080
0.00058
0.00036
0.00053
-0.00021
0.00011
0.00003
-0.00031
-0.00034
-0.00031
-0.00029
-0.00040
-0.00040
0.00007
0.00000
0.00005
0.00004
0.00001
-0.00003
-0.00003
-0.00005
-0.00001
-0.00006
-0.00011
-0.00016
-0.00022
-0.00039
0.00068
0.00106
0.00105
0.00046
0.00023
0.00054
0.00068
0.00038
0.00045
0.00048
0.00039
0.00037
0.00027
0.00019
0.00021
0.00038
0.00045
0.00042
0.00037
0.00044
0.00041
0.00042
0.00043
0.00043
0.00039
0.00025
0.00024
0.00011
0.00019
0.00016
0.00011
0.00014
-0.00001
-0.00011
-0.00031
0.00072
0.00060
0.00054
0.00054
0.00058
0.00035
0.00027
0.00034
0.00039
0.00048
0.00017
0.00029
0.00030
0.00026
0.00028
0.00020
-0.00001
0.00014
0.00053
0.00009
-0.00060
0.00094
0.00062
-0.00023
-0.00042
-0.00010
0.00014
-0.00040
-0.00015
-0.00044
0.00053
-0.00029
-0.00068
0.00030
-0.00034
-0.00062
-0.00058
-0.00053
-0.00016
0.00004
-0.00024
-0.00034
0.00063
0.00045
0.00036
-0.00017
-0.00019
-0.00015
-0.00049
-0.00004
0.00005
-0.00104
-0.00063
-0.00077
-0.00038
-0.00036
-0.00029
-0.00083
-0.00083
-0.00108
0.00083
0.00027
0.00023
-0.00087
0.00125
-0.00076
0.00113
-0.00132
0.00047
0.00045
0.00049
-0.00074
0.00051
0.00066
0.00161
-0.00144
0.00072
-0.00107
-0.00043
-0.00087
0.00016
0.00203
0.00208
-0.00005
0.00022
-0.00072
0.00063
0.00134
0.00027
-0.00057
-0.00074
0.00076
-0.00033
0.00091
0.00048
-0.00157
-0.00167
-0.00103
-0.00013
0.00126
-0.00140
-0.00108
0.00106
0.00097
0.00088
0.00003
0.00087
0.00064
0.00121
0.00100
0.00085
0.00038
-0.00084
0.00038
-0.00062
-0.00133
0.00030
0.00091
-0.00068
-0.00041
0.00082
0.00036
0.00082
0.00004
0.00050
-0.00001
0.00024
-0.00029
-0.00054
-0.00033
0.00133
0.00100
0.00089
0.00050
-0.00087
-0.00117
-0.00071
-0.00139
-0.00029
-0.00016
-0.00035
0.00115
-0.00012
0.00126
0.00118
-0.00031
-0.00102
0.00064
0.00045
-0.00038
-0.00020
0.00083
-0.00069
-0.00143
-0.00050
0.00164
-0.00020
-0.00062
0.00124
0.00040
0.00059
0.00020
-0.00106
-0.00043
0.00031
0.00000
0.00070
-0.00038
-0.00134
0.00055
0.00069
0.00030
0.00035
0.00088
-0.00294
0.00022
-0.00110
-0.00053
-0.00198
-0.00021
0.00088
0.00131
-0.00035
0.00001
0.00007
-0.00003
0.00027
0.00006
0.00016
0.00001
0.00018
0.00018
0.00021
0.00001
0.00001
-0.00024
-0.00031
0.00050
0.00017
0.00019
0.00002
0.00007
0.00004
0.00018
0.00016
0.00021
0.00007
0.00007
-0.00033
-0.00009
-0.00002
-0.00012
-0.00005
0.00012
0.00004
0.00009
-0.00043
-0.00001
0.00001
0.00000
-0.00007
-0.00001
0.00018
-0.00011
-0.00005
-0.00001
-0.00002
0.00134
0.00043
0.00012
0.00104
0.00114
0.00095
0.00005
0.00072
0.00024
0.00083
-0.00008
0.00072
0.00120
0.00114
0.00010
0.00038
-0.00047
0.00010
-0.00007
0.00053
0.00150
0.00095
0.00043
0.00003
-0.00018
-0.00170
-0.00016
-0.00033
-0.00027
0.00094
0.00005
-0.00019
0.00104
0.00023
-0.00215
0.00094
0.00133
-0.00060
0.00101
-0.00121
0.00060
0.00036
-0.00021
0.00057
0.00111
-0.00016
0.00074
-0.00180
-0.00019
-0.00056
0.00127
-0.00077
0.00248
0.00162
0.00070
0.00095
0.00129
-0.00060
0.00095
-0.00023
-0.00075
0.00043
0.00059
0.00052
-0.00001
0.00045
0.00136
0.00119
-0.00001
-0.00050
0.00048
-0.00048
0.00027
0.00026
0.00134
0.00109
0.00068
0.00025
-0.00084
0.00016
0.00047
0.00013
0.00073
0.00031
0.00124
-0.00113
-0.00028
-0.00053
0.00030
0.00142
-0.00002
0.00031
0.00024
0.00074
0.00143
0.00081
0.00142
-0.00054
-0.00011
-0.00058
0.00034
-0.00056
0.00137
-0.00043
0.00059
0.00144
-0.00043
-0.00107
-0.00009
0.00003
-0.00046
0.00063
0.00050
0.00004
0.00009
-0.00045
0.00012
-0.00042
0.00057
-0.00093
0.00060
0.00011
-0.00008
0.00030
0.00016
-0.00022
-0.00011
0.00022
-0.00072
0.00047
-0.00038
-0.00077
-0.00022
-0.00037
-0.00060
0.00058
0.00111
0.00020
0.00008
-0.00016
-0.00064
0.00005
0.00010
-0.00007
-0.00071
0.00065
0.00053
-0.00023
0.00036
0.00016
0.00024
0.00004
-0.00027
0.00014
0.00019
0.00015
0.00042
-0.00074
-0.00028
-0.00070
0.00064
-0.00007
-0.00040
0.00036
0.00028
-0.00117
0.00064
-0.00017
0.00042
0.00024
0.00077
0.00063
-0.00035
0.00003
-0.00107
0.00050
-0.00022
0.00106
0.00042
-0.00042
-0.00127
0.00089
-0.00074
-0.00167
0.00104
0.00032
-0.00021
0.00119
0.00053
0.00104
0.00133
-0.00082
0.00040
-0.00037
0.00012
0.00014
0.00027
0.00024
-0.00042
-0.00018
0.00004
0.00005
0.00036
0.00009
0.00030
0.00024
0.00048
0.00079
-0.00069
-0.00013
0.00004
0.00007
0.00012
0.00023
-0.00143
0.00027
-0.00033
0.00172
-0.00033
0.00115
-0.00007
0.00010
0.00073
-0.00039
-0.00045
0.00073
0.00048
0.00013
0.00006
-0.00252
0.00063
-0.00062
0.00096
-0.00084
0.00001
-0.00069
0.00071
-0.00074
-0.00046
0.00034
0.00033
0.00037
0.00113
-0.00076
0.00060
0.00090
-0.00090
-0.00072
0.00054
-0.00059
0.00061
-0.00089
-0.00013
-0.00049
-0.00051
-0.00060
-0.00064
-0.00038
-0.00057
-0.00069
-0.00027
-0.00010
-0.00009
-0.00059
0.00015
-0.00003
-0.00026
0.00003
0.00040
-0.00050
-0.00063
0.00023
-0.00079
-0.00011
0.00008
-0.00016
-0.00074
0.00166
-0.00100
-0.00001
-0.00009
-0.00015
0.00012
0.00065
0.00000
0.00053
-0.00080
-0.00015
-0.00055
0.00011
0.00091
0.00028
0.00021
0.00017
-0.00022
-0.00036
0.00022
0.00003
0.00041
-0.00092
-0.00069
-0.00004
0.00029
0.00022
0.00050
0.00063
0.00047
0.00006
-0.00040
-0.00006
-0.00011
-0.00011
0.00048
-0.00024
0.00011
-0.00003
0.00033
0.00140
0.00045
0.00094
-0.00002
0.00188
-0.00084
0.00022
-0.00037
0.00003
0.00020
0.00122
-0.00101
0.00012
-0.00058
0.00062
-0.00010
-0.00023
-0.00032
-0.00078
0.00051
0.00005
0.00029
-0.00054
0.00026
0.00097
0.00039
0.00017
0.00028
-0.00011
0.00002
0.00059
-0.00134
0.00023
-0.00103
0.00063
-0.00065
0.00084
0.00106
0.00014
-0.00023
-0.00065
0.00048
-0.00070
-0.00008
0.00053
-0.00095
0.00039
-0.00058
-0.00015
-0.00040
0.00011
-0.00097
-0.00002
0.00081
0.00056
-0.00035
0.00065
0.00067
0.00091
-0.00043
0.00008
-0.00005
-0.00040
-0.00019
-0.00080
-0.00005
0.00166
0.00077
-0.00006
-0.00007
-0.00027
-0.00034
-0.00042
0.00051
-0.00021
0.00085
-0.00006
-0.00188
-0.00016
-0.00020
-0.00042
0.00163
-0.00024
-0.00020
0.00044
0.00006
0.00018
0.00025
0.00032
0.00027
-0.00005
0.00060
0.00074
-0.00033
0.00020
-0.00010
0.00016
0.00011
0.00009
-0.00004
0.00007
0.00050
0.00034
0.00004
-0.00014
0.00033
0.00039
-0.00001
0.00039
-0.00009
-0.00148
-0.00126
0.00021
-0.00125
0.00021
0.00043
0.00039
0.00012
-0.00089
0.00012
0.00013
0.00158
-0.00036
0.00030
0.00058
0.00059
0.00153
-0.00037
-0.00035
0.00046
-0.00075
0.00142
-0.00130
-0.00048
0.00039
-0.00161
-0.00095
0.00225
0.00153
-0.00096
-0.00132
0.00169
0.00050
-0.00114
-0.00025
-0.00043
0.00095
0.00129
0.00073
-0.00116
0.00064
0.00027
-0.00037
0.00117
-0.00078
0.00011
0.00070
-0.00025
0.00098
0.00070
-0.00099
-0.00078
-0.00014
0.00033
0.00145
0.00009
-0.00091
0.00235
0.00046
-0.00035
0.00024
-0.00101
0.00010
0.00070
-0.00111
0.00015
-0.00053
0.00104
0.00150
-0.00014
0.00021
-0.00035
-0.00027
-0.00053
0.00050
0.00135
-0.00049
-0.00222
0.00135
0.00130
-0.00105
0.00020
0.00108
0.00035
0.00009
-0.00091
0.00082
0.00042
0.00063
0.00090
0.00047
-0.00126
0.00168
-0.00007
0.00026
0.00101
0.00084
0.00007
-0.00053
-0.00108
-0.00044
-0.00027
-0.00036
-0.00010
0.00114
-0.00122
-0.00021
0.00079
-0.00074
-0.00172
0.00069
-0.00039
0.00010
-0.00006
0.00002
-0.00050
0.00021
-0.00037
-0.00073
-0.00065
-0.00017
-0.00015
-0.00044
-0.00051
-0.00028
-0.00028
0.00009
-0.00057
-0.00059
-0.00004
-0.00051
0.00003
-0.00016
-0.00110
-0.00104
-0.00086
0.00017
0.00057
0.00010
-0.00004
0.00028
-0.00020
-0.00068
-0.00040
-0.00065
-0.00002
-0.00022
0.00014
0.00020
0.00085
0.00088
0.00004
-0.00045
0.00044
0.00051
0.00044
0.00032
0.00020
0.00016
0.00042
0.00039
0.00018
0.00066
0.00062
0.00038
0.00069
0.00067
0.00092
0.00023
0.00118
0.00055
0.00037
0.00078
0.00078
0.00092
0.00123
0.00081
0.00066
0.00045
0.00186
0.00200
0.00150
0.00209
0.00174
0.00081
0.00028
-0.00052
-0.00053
-0.00000
-0.00139
-0.00052
0.00057
0.00115
-0.00059
-0.00051
0.00030
0.00085
-0.00024
0.00066
0.00091