# vtk DataFile Version 3.0
Point representing Sub_cellular elem model
ASCII

DATASET UNSTRUCTURED_GRID
POINTS 50109 float
7.33990 6.48940 9.98260 
3.93316 7.96810 6.79672 
3.89199 8.54936 4.03194 
4.15157 7.72658 7.58876 
4.71451 0.80479 6.81356 
4.76491 2.28078 5.46931 
0.86717 8.96787 6.80045 
1.56064 6.99982 5.64579 
3.02630 4.61020 9.07010 
5.28278 7.47082 1.29960 
5.61330 8.84250 9.07890 
2.01755 4.99043 0.56008 
0.70757 1.58840 0.27696 
1.31025 3.33163 7.44690 
8.78871 2.67789 7.22550 
2.33320 3.04130 9.85140 
0.96025 5.13080 8.31190 
2.50190 4.97392 3.08812 
8.87824 4.47950 1.85910 
5.26090 9.06750 8.64320 
8.43149 1.03358 2.84484 
1.59059 9.12116 5.07322 
7.88734 0.84515 0.67426 
1.64045 1.40596 5.20453 
7.39170 8.02950 9.27140 
8.43340 4.81831 6.03754 
6.33958 2.83650 0.94024 
4.00344 1.56694 2.82948 
6.36979 5.02363 7.08921 
4.66598 4.57803 3.24418 
8.72586 8.89440 3.21109 
7.19579 8.17586 5.22783 
1.92923 7.20406 4.73892 
9.10899 4.64499 7.36125 
2.82009 1.38849 7.31175 
2.87385 8.58012 4.43828 
3.24220 1.10080 8.21080 
7.41545 1.78122 7.24191 
0.99776 3.19030 8.00990 
2.51730 1.33290 8.08650 
0.72948 1.95176 3.03659 
6.72845 2.65155 0.06567 
5.38480 8.24040 8.82700 
1.77039 7.36680 6.66796 
4.83330 2.41770 8.89190 
4.97656 7.48337 6.44109 
9.58271 7.99174 6.43004 
8.81642 6.89846 1.55152 
6.82811 4.86956 5.49036 
5.24359 3.57665 1.58523 
9.16420 7.63510 9.50930 
3.45225 7.88119 6.62707 
9.04713 4.70643 1.19218 
3.06647 1.82592 1.36831 
4.82852 2.47062 6.92428 
7.92503 9.00566 0.21882 
8.38720 3.67862 1.81306 
3.24817 3.87962 0.50748 
6.82644 7.63382 3.99258 
4.46271 1.20528 5.72226 
7.43292 7.60454 1.43708 
1.59371 5.13136 7.97145 
4.80863 6.74502 2.60794 
1.20404 3.56908 0.07407 
7.94540 9.79080 8.67650 
6.78376 8.67341 4.26294 
3.51060 6.81370 8.46550 
2.85263 4.68680 1.49330 
8.38527 9.17605 7.64506 
5.54553 4.43021 7.84178 
5.76330 4.97000 1.39980 
2.43230 5.29550 8.35610 
5.63060 5.44040 9.79390 
8.67404 1.66361 2.79901 
0.63087 8.47315 7.55826 
3.52281 6.76492 5.88805 
1.54300 6.38418 5.25059 
3.91896 2.66754 6.71703 
8.86520 0.66311 9.46840 
7.60000 5.89160 9.71430 
5.03680 1.48770 9.63820 
7.57414 7.83732 4.73591 
6.65561 5.69002 5.49013 
5.14615 6.34320 6.77492 
8.54800 8.91170 1.69590 
5.24820 3.41640 0.27485 
7.90677 4.44122 2.63681 
8.56561 5.31681 2.44520 
8.68591 6.24757 7.03099 
2.07521 1.62926 5.45442 
3.20110 5.41650 0.89081 
2.43382 5.60403 7.12789 
4.98883 1.85227 7.57804 
1.76920 0.31975 9.47190 
1.68300 4.22890 1.95110 
3.21002 3.79705 5.86887 
3.46250 2.08001 5.17483 
6.45300 4.11110 0.68602 
9.55363 8.18208 4.22705 
4.83541 6.98681 5.39521 
5.44884 8.04586 4.67389 
2.00690 8.86790 8.37600 
8.48960 4.25870 1.84550 
0.76128 0.30518 2.52643 
6.05737 8.22797 2.71590 
4.77170 7.23840 9.38690 
4.27118 5.29689 4.00736 
5.68010 9.17070 1.97060 
7.59900 1.21110 0.25777 
0.38761 2.09300 2.10736 
1.36476 2.78599 2.77420 
8.07869 4.35643 3.43112 
1.88806 2.78943 2.04652 
5.98750 2.76301 6.39160 
7.31000 4.27045 2.61750 
5.10359 2.51370 5.10985 
0.35226 8.16990 0.41924 
5.63481 7.03731 6.18951 
9.03150 7.08630 1.98090 
4.28658 1.10124 3.32570 
6.44140 7.86030 1.68290 
1.01498 3.00158 2.57402 
8.87361 7.58947 3.40664 
8.83339 3.11308 7.74289 
2.61710 8.81459 7.13586 
9.53474 8.14531 5.58557 
8.32620 0.32132 1.13490 
8.80212 6.19438 7.62903 
4.89574 4.42964 6.23058 
6.01146 8.84345 5.22120 
5.95428 4.02234 2.22275 
3.26946 4.81069 5.28118 
9.13200 3.17846 5.68131 
7.87270 5.37770 8.74850 
3.28790 3.58660 9.84970 
7.10740 2.03680 9.81900 
1.69800 7.06010 1.85750 
6.82620 3.05930 8.18350 
4.00333 1.35091 3.16007 
7.77716 2.77039 4.11902 
1.82800 5.21040 0.43497 
3.65865 7.28818 2.05652 
5.66100 6.58520 0.72042 
8.83300 3.26690 1.30140 
3.74239 1.08990 2.77408 
8.81835 8.46787 6.39814 
1.04814 6.97227 7.30874 
1.54792 4.02334 2.41097 
0.17836 7.67130 1.04060 
2.66110 3.33970 9.34500 
3.26636 6.99154 7.45841 
6.39727 7.12547 5.39461 
5.61610 8.63050 1.77440 
6.46491 4.75236 5.50397 
7.34650 2.06170 9.51500 
6.59593 7.60028 7.74759 
8.37388 8.87901 2.31623 
0.74274 5.55058 4.49940 
0.45374 0.15901 6.38731 
7.31081 4.49893 5.90410 
4.45230 4.68560 1.19970 
9.20430 1.89370 8.92300 
2.73908 2.85843 3.17718 
3.12100 6.86370 8.09100 
5.23430 8.54733 2.25499 
6.46812 5.08450 7.21363 
1.57324 6.76093 4.76564 
8.14451 5.66527 3.43530 
5.87410 6.78180 1.29360 
0.93048 9.80250 8.07390 
5.52318 2.38392 2.84501 
0.45121 2.07180 9.48480 
7.39576 2.11186 2.26289 
2.39767 2.29337 4.35717 
6.35820 6.94540 0.51962 
8.30148 8.40301 4.19469 
5.15174 2.14212 7.60588 
5.27682 2.06874 7.40238 
8.31881 2.29982 2.01746 
5.90571 0.06601 6.23913 
8.51130 1.85310 1.93980 
7.15390 7.61870 8.32930 
7.15040 5.31360 0.99570 
7.58430 1.75660 9.42920 
2.08480 9.16925 4.32258 
6.15470 1.93150 0.71233 
5.29820 2.29280 0.56303 
3.08460 6.05470 0.72488 
6.13270 6.29800 1.92880 
9.15073 1.69796 2.74533 
9.20220 7.02630 9.29640 
1.86660 1.23170 8.80230 
1.02550 6.26100 9.17080 
8.32438 4.66606 6.46730 
5.99620 8.23950 1.67710 
6.94580 2.61440 1.37750 
1.20038 2.35897 3.21502 
2.54460 2.75160 9.30040 
6.13978 0.52140 3.53188 
8.03734 8.38188 6.01142 
3.18820 4.07980 2.00150 
2.87930 2.40710 8.64640 
4.84060 1.89960 0.70032 
1.75110 1.18290 0.51125 
6.97590 6.71500 9.04390 
3.29917 5.71319 3.88780 
0.04352 2.82764 3.04987 
2.32340 3.21330 0.13723 
7.04165 8.32476 6.36244 
3.65212 5.36524 5.32346 
6.15510 6.67850 9.53860 
5.37280 4.60810 0.06152 
9.15710 5.89891 6.59704 
3.34176 9.09158 5.04593 
9.11640 9.10940 0.16210 
5.84130 2.72400 9.81590 
6.54376 8.48117 5.04876 
1.74630 5.41620 8.72080 
7.52774 3.08117 3.45214 
2.06970 0.54503 8.58070 
3.75093 1.80615 7.93544 
3.59700 1.66620 9.63850 
5.49430 1.57640 8.59520 
8.59520 1.34960 0.11280 
9.43810 6.42050 0.50071 
1.26217 6.28583 5.97285 
5.58180 0.03450 1.20820 
1.41600 9.07130 9.16540 
1.55860 1.83000 1.73290 
4.43660 5.93740 9.10650 
8.14910 2.92250 8.80850 
6.75775 3.07452 4.77656 
3.49846 4.32628 5.47193 
4.58957 6.17397 3.51456 
5.36415 6.09557 3.36723 
4.78220 7.97050 0.64575 
7.37680 6.49280 1.92590 
3.88460 2.18870 0.68627 
6.75320 7.69940 9.63870 
1.53123 7.10099 5.80640 
1.01530 1.49720 9.53800 
6.17395 1.07152 6.25225 
8.95430 5.05730 8.09760 
4.26814 7.77443 3.76992 
7.12730 9.96720 8.68570 
0.14261 6.61220 0.40062 
8.85990 3.32140 9.78010 
7.24470 2.00921 3.02320 
5.72372 5.24539 3.00238 
4.57770 0.91193 7.38155 
1.67360 6.74410 1.44670 
8.19690 8.91060 1.85420 
4.88448 8.13995 5.62740 
3.77317 3.73852 4.45009 
5.24800 2.52370 9.15910 
0.78323 1.49174 5.98532 
3.62947 2.26903 2.84534 
6.14880 9.25090 8.90840 
9.10460 3.60970 8.50340 
1.96549 4.21657 2.68465 
5.00090 1.36370 8.00430 
1.73300 4.47470 9.35310 
3.80560 2.45933 4.32232 
1.18589 1.44428 5.75547 
1.10577 8.27426 5.68018 
8.09334 3.99459 3.42418 
1.92093 3.50849 7.03725 
5.25860 2.06280 0.79337 
0.04533 6.29020 0.51144 
3.31475 2.19876 7.36039 
7.85510 3.18500 0.54434 
6.07960 6.28940 1.26380 
9.16000 1.43540 1.95910 
4.03640 4.05455 2.13752 
2.05007 8.95557 5.36870 
1.30011 0.87520 2.88540 
1.63390 7.54030 1.65150 
5.74800 5.17980 9.28170 
5.90582 1.37672 7.83228 
7.79990 7.71650 9.62690 
9.73365 3.53279 4.19185 
3.78880 8.61580 1.25150 
0.70831 5.40587 7.21059 
7.98267 4.77110 4.81822 
5.77639 5.54709 6.48989 
6.98157 8.77896 5.05744 
1.14381 3.81601 3.70221 
4.37310 5.77670 0.44941 
5.25846 1.78000 4.96766 
8.27760 3.79410 1.29240 
6.01238 2.87999 6.64182 
9.40662 6.49991 2.36109 
7.64020 5.41210 9.84060 
2.38849 6.87836 4.95895 
9.03842 3.23461 5.88568 
2.89654 4.09320 4.44039 
2.41564 8.70483 3.75747 
3.39837 3.92859 5.14061 
4.21113 6.16567 4.83719 
8.51970 3.82550 9.97020 
2.51347 0.41871 4.68020 
1.79220 3.68330 8.99240 
2.95003 5.97223 7.96494 
4.74023 4.43715 6.86229 
2.84020 8.67046 3.44434 
6.20730 5.71690 0.23706 
2.23200 8.31440 8.88280 
7.32175 8.41542 2.59628 
8.84540 4.21150 9.55220 
8.44240 3.79220 0.92531 
3.88981 7.36561 5.13961 
4.07870 6.22650 8.89200 
6.97690 6.62460 1.24510 
2.17107 1.67742 3.93824 
2.57689 7.87788 7.57909 
3.37210 6.38810 8.56210 
1.78696 7.32845 7.61045 
4.94660 5.91190 1.48820 
7.78203 3.90892 5.80694 
5.44710 7.09402 4.55553 
6.41050 5.17450 8.05740 
2.20364 7.85715 7.35932 
2.93057 1.31644 4.06669 
2.51089 8.59802 3.89583 
6.25281 5.84628 7.24539 
9.02019 6.90801 6.47830 
2.01070 2.15010 9.13380 
3.20171 2.71985 4.03440 
2.19550 4.67030 0.80940 
4.92830 3.47520 8.66260 
6.06124 8.02566 7.83677 
0.63479 3.28893 5.07173 
2.49787 0.69495 2.35516 
2.47800 3.51110 8.99220 
0.74367 4.86513 6.16544 
5.99100 2.77710 0.75818 
1.72156 6.44414 4.52478 
7.57314 8.16514 2.21589 
2.87951 3.55037 4.07743 
2.14710 2.94323 6.78114 
7.59210 4.03860 0.01725 
6.25692 6.92782 2.80015 
0.98069 3.25540 9.82290 
1.62461 3.34710 4.40225 
4.32679 2.18978 2.50160 
8.07730 0.04512 9.48080 
8.09464 7.84290 6.34973 
1.47180 8.07030 1.93580 
8.09740 6.70980 0.40889 
8.69164 4.84766 6.27934 
7.95160 3.85160 0.90523 
3.68030 4.30940 9.80250 
6.31510 1.51890 0.13342 
2.69231 2.24498 2.74095 
2.37448 2.16486 3.52362 
7.83410 5.64640 8.33840 
2.03990 3.49700 0.14706 
0.38591 5.33750 6.44299 
1.32290 1.12050 9.24830 
4.65021 7.19573 5.83090 
1.65243 5.22027 7.64523 
5.02872 3.65925 5.23335 
8.88992 7.30869 2.79538 
3.22180 6.48390 0.72968 
7.49916 8.09762 5.56240 
2.25010 7.19980 0.92564 
9.07420 4.73440 8.13500 
2.11150 4.87380 1.43860 
8.05237 4.26030 5.35001 
5.15160 0.17533 9.66490 
1.65513 0.94154 5.95717 
3.24823 8.42897 3.84928 
1.65890 2.55160 9.16410 
2.52000 0.82259 0.78982 
6.86636 8.65688 5.59906 
2.48160 2.01560 9.94880 
9.04550 0.43743 9.31560 
4.85665 7.58489 7.18683 
7.50850 9.01730 1.91500 
1.56840 7.52110 9.36690 
2.91320 0.54210 3.12369 
8.70130 8.10940 0.70175 
2.92581 3.00031 2.64041 
6.32170 6.81500 0.01839 
6.52680 4.34360 8.12780 
1.45179 5.62240 4.53843 
2.72330 3.32390 8.98460 
1.54280 2.28210 0.11716 
6.92270 6.65730 1.69940 
1.52330 4.88980 0.03120 
6.54870 6.10580 0.80683 
8.42969 5.52725 5.09031 
9.17313 5.47802 4.76809 
8.95523 4.24025 4.10246 
9.28552 5.70438 5.21900 
[...]
CELL_DATA 50173
SCALARS Fiber_Strain double 
LOOKUP_TABLE default 
0.00208
0.00280
0.00286
0.00271
0.00367
0.00248
0.00226
0.00233
0.00243
0.00254
0.00130
0.00311
0.00325
0.00229
0.00308
0.00359
0.00359
0.00134
0.00172
0.00197
0.00151
-0.00015
0.00187
0.00156
0.00083
0.00099
0.00117
0.00030
0.00012
0.00162
0.00174
0.00240
0.00245
0.00121
0.00223
0.00228
0.00150
0.00171
0.00182
0.00256
0.00189
0.00168
0.00235
0.00179
0.00151
0.00264
0.00247
0.00065
0.00223
0.00014
0.00166
-0.00166
0.00127
0.00052
0.00140
0.00017
-0.00008
0.00179
0.00181
0.00311
0.00297
0.00183
0.00149
0.00256
0.00067
0.00164
0.00376
0.00208
0.00233
0.00212
0.00200
0.00300
0.00418
0.00232
0.00210
0.00226
0.00288
0.00280
0.00175
0.00223
0.00296
0.00268
0.00179
0.00219
0.00259
0.00241
0.00195
0.00173
0.00201
0.00163
0.00199
0.00026
0.00185
0.00166
0.00150
0.00166
0.00255
0.00140
0.00121
0.00121
0.00172
0.00343
0.00302
0.00211
0.00047
0.00044
0.00029
0.00033
0.00028
0.00023
0.00027
0.00014
0.00011
-0.00014
0.00051
0.00033
0.00035
0.00033
0.00020
0.00002
0.00016
0.00016
0.00016
0.00011
0.00021
0.00015
0.00015
0.00015
0.00011
0.00223
0.00154
0.00159
0.00159
0.00227
0.00119
0.00134
0.00147
0.00182
0.00141
0.00155
0.00177
0.00111
0.00128
0.00141
0.00130
0.00174
0.00098
0.00130
0.00139
0.00136
0.00172
0.00159
0.00200
0.00153
0.00183
0.00206
0.00155
0.00170
0.00204
0.00187
0.00195
0.00214
0.00152
0.00173
0.00198
0.00157
0.00122
0.00196
0.00159
0.00158
0.00169
0.00166
0.00183
0.00180
0.00176
0.00157
0.00158
0.00150
0.00222
0.00075
0.00017
0.00087
0.00227
0.00103
0.00250
0.00098
0.00103
0.00231
0.00158
-0.00114
0.00068
0.00214
0.00056
0.00145
0.00141
0.00002
-0.00039
-0.00001
-0.00037
0.00066
-0.00047
0.00018
-0.00041
0.00043
0.00049
-0.00005
0.00004
-0.00016
0.00021
0.00031
0.00022
0.00032
0.00005
-0.00001
-0.00000
-0.00004
0.00004
-0.00001
-0.00013
-0.00003
0.00261
0.00292
0.00262
0.00249
0.00192
0.00370
0.00313
0.00087
0.00278
0.00322
0.00294
0.00168
0.00119
0.00213
0.00176
0.00289
0.00375
0.00181
0.00098
0.00241
0.00318
0.00196
0.00252
0.00177
0.00338
0.00335
0.00293
0.00226
0.00232
0.00191
0.00246
0.00222
0.00152
0.00253
0.00222
0.00267
0.00248
0.00355
0.00239
0.00103
0.00051
0.00127
0.00126
0.00091
0.00052
0.00056
0.00126
0.00036
0.00041
0.00012
0.00048
0.00030
0.00017
-0.00038
0.00027
0.00024
0.00261
0.00211
0.00211
-0.00020
-0.00039
-0.00044
-0.00058
0.00054
0.00054
0.00047
-0.00015
0.00137
0.00103
0.00099
0.00092
0.00070
0.00107
0.00088
0.00067
0.00085
0.00087
0.00036
0.00047
0.00045
0.00043
0.00051
0.00055
0.00051
0.00046
0.00052
0.00013
0.00052
0.00035
-0.00157
0.00021
-0.00029
-0.00053
-0.00015
-0.00161
-0.00051
0.00140
-0.00024
0.00059
-0.00037
-0.00100
-0.00049
0.00054
-0.00018
-0.00022
0.00073
-0.00149
0.00103
0.00280
0.00144
0.00111
0.00087
0.00266
0.00083
0.00231
0.00334
0.00275
0.00047
0.00144
-0.00015
0.00289
-0.00161
0.00092
0.00084
0.00182
0.00036
0.00046
0.00117
0.00097
-0.00024
0.00056
-0.00111
0.00240
0.00143
0.00135
-0.00053
0.00053
0.00080
0.00192
0.00039
0.00137
0.00067
0.00135
0.00150
-0.00010
0.00095
0.00020
0.00121
0.00086
0.00107
0.00093
0.00112
0.00110
0.00099
0.00144
0.00209
0.00093
0.00041
0.00158
0.00146
0.00143
0.00181
0.00072
0.00193
0.00206
0.00027
-0.00208
0.00066
-0.00134
0.00046
0.00033
-0.00137
0.00024
-0.00072
-0.00049
0.00093
-0.00131
0.00051
-0.00067
0.00213
0.00044
0.00036
0.00060
0.00015
-0.00020
0.00104
-0.00002
0.00196
0.00152
-0.00043
0.00177
0.00215
-0.00066
-0.00039
-0.00041
0.00024
0.00181
0.00208
0.00238
0.00216
0.00197
0.00220
0.00225
0.00205
0.00212
0.00207
0.00239
0.00246
0.00228
0.00229
0.00199
0.00220
0.00223
0.00236
0.00227
0.00185
0.00214
0.00195
0.00207
0.00204
0.00197
0.00203
0.00224
0.00224
0.00238
0.00173
0.00219
0.00181
0.00198
0.00188
0.00228
0.00200
0.00166
0.00223
0.00261
0.00254
0.00221
0.00201
0.00223
0.00216
0.00130
0.00115
0.00112
0.00181
0.00185
0.00153
0.00089
0.00201
0.00171
0.00200
0.00165
0.00261
0.00256
0.00288
0.00169
0.00208
0.00141
0.00165
0.00123
0.00132
0.00145
0.00108
0.00122
0.00135
0.00102
0.00155
0.00194
0.00174
0.00118
0.00097
0.00067
0.00070
0.00097
0.00144
0.00174
0.00040
0.00164
0.00173
0.00116
0.00138
0.00122
0.00086
0.00124
0.00171
0.00162
0.00134
0.00146
0.00137
0.00216
0.00103
0.00133
0.00177
0.00125
0.00138
0.00094
0.00265
0.00181
0.00282
0.00158
0.00231
0.00272
0.00227
0.00316
0.00264
0.00140
0.00177
0.00368
0.00294
0.00169
0.00140
0.00225
0.00249
0.00227
0.00297
0.00205
0.00199
0.00300
0.00115
0.00140
0.00281
0.00350
0.00161
0.00320
0.00237
0.00236
0.00226
0.00058
0.00233
0.00222
0.00345
0.00133
0.00164
0.00250
0.00108
0.00402
0.00186
0.00240
0.00321
-0.00038
0.00098
0.00045
-0.00063
0.00122
0.00303
0.00110
0.00179
0.00151
0.00050
0.00109
0.00089
0.00223
0.00136
0.00055
0.00072
0.00104
-0.00027
0.00105
0.00129
0.00256
0.00149
-0.00041
-0.00015
0.00106
0.00087
-0.00027
0.00042
0.00066
-0.00115
0.00052
0.00135
0.00010
-0.00065
0.00047
0.00206
0.00098
0.00162
0.00306
0.00152
0.00169
0.00192
0.00153
0.00321
0.00201
0.00188
0.00220
0.00116
0.00194
0.00236
0.00116
0.00231
0.00191
0.00285
0.00173
0.00177
0.00219
0.00250
0.00098
0.00177
0.00064
0.00184
0.00264
0.00202
0.00302
0.00232
0.00248
0.00137
0.00155
0.00168
0.00133
0.00202
0.00257
0.00093
0.00329
0.00115
0.00170
0.00112
0.00164
0.00190
0.00382
0.00089
0.00199
0.00243
0.00295
0.00207
0.00272
0.00157
0.00308
0.00251
0.00105
0.00344
0.00281
0.00336
0.00281
0.00272
0.00324
0.00166
0.00209
0.00298
0.00302
0.00262
0.00344
0.00250
0.00120
0.00149
0.00274
0.00226
0.00127
0.00262
0.00289
0.00299
0.00028
0.00214
0.00213
0.00119
0.00061
0.00057
0.00076
-0.00003
0.00092
0.00174
0.00144
0.00145
0.00049
0.00153
0.00089
0.00232
0.00217
0.00165
0.00227
0.00151
0.00204
0.00161
0.00177
0.00216
0.00172
0.00238
0.00142
0.00157
0.00143
0.00127
0.00186
0.00211
0.00186
0.00190
0.00210
0.00256
0.00115
0.00343
0.00206
0.00155
0.00167
0.00196
0.00217
0.00208
0.00374
0.00224
0.00187
0.00204
0.00138
0.00203
0.00369
0.00261
0.00181
0.00172
0.00191
0.00266
0.00172
0.00123
0.00185
0.00210
0.00272
0.00146
0.00301
0.00114
0.00175
0.00167
0.00188
0.00140
0.00262
0.00272
0.00142
0.00383
0.00116
0.00204
0.00180
0.00285
0.00226
0.00193
0.00159
0.00233
0.00145
0.00241
0.00206
0.00177
0.00264
0.00253
0.00171
0.00166
0.00280
0.00201
0.00220
0.00294
0.00282
0.00227
0.00289
0.00221
0.00242
0.00209
0.00278
0.00231
0.00293
0.00308
0.00348
0.00241
0.00280
0.00302
0.00337
0.00352
0.00293
0.00187
0.00282
0.00300
0.00300
0.00272
0.00252
0.00209
0.00366
0.00329
0.00244
0.00338
0.00220
0.00027
0.00198
0.00106
0.00212
0.00210
0.00067
0.00015
0.00126
0.00149
0.00187
0.00221
0.00238
0.00147
0.00185
0.00249
0.00241
0.00150
0.00157
0.00181
0.00066
0.00148
0.00167
0.00262
0.00184
0.00132
0.00153
0.00132
0.00125
0.00258
0.00193
0.00116
0.00211
0.00282
0.00172
0.00088
0.00163
0.00248
0.00230
0.00221
0.00276
0.00224
0.00182
0.00187
0.00079
0.00259
0.00206
0.00241
0.00215
0.00145
0.00189
0.00160
0.00010
0.00037
0.00091
0.00092
0.00111
-0.00002
0.00106
0.00296
0.00221
0.00184
0.00183
0.00155
0.00348
0.00129
0.00206
0.00187
0.00153
0.00080
0.00117
-0.00047
0.00191
0.00053
0.00049
0.00014
-0.00003
0.00178
0.00199
0.00192
0.00084
0.00168
0.00189
0.00207
0.00149
0.00186
0.00291
0.00307
0.00179
0.00207
0.00248
0.00202
0.00061
0.00244
0.00182
0.00124
0.00071
0.00193
0.00153
0.00174
0.00168
0.00199
0.00064
0.00163
0.00095
0.00246
0.00252
0.00150
0.00187
0.00200
0.00177
0.00158
0.00238
0.00148
0.00205
0.00188
0.00232
0.00189
0.00201
0.00162
0.00495
0.00431
0.00477
0.00429
0.00381
0.00135
0.00155
0.00189
0.00106
0.00092
0.00152
0.00120
0.00228
0.00227
0.00142
0.00199
0.00136
0.00154
0.00155
0.00170
0.00176
0.00135
0.00172
0.00195
0.00131
0.00242
0.00191
0.00125
0.00172
0.00090
0.00082
0.00167
0.00115
0.00124
0.00088
0.00109
0.00199
0.00146
0.00191
0.00011
0.00152
0.00280
0.00208
0.00212
0.00202
0.00159
-0.00020
0.00294
0.00038
0.00071
0.00250
0.00048
0.00190
0.00001
0.00158
0.00069
0.00138
0.00169
0.00252
0.00177
0.00155
0.00205
0.00207
0.00185
0.00247
0.00015
0.00054
0.00213
0.00180
0.00117
0.00265
0.00083
0.00243
-0.00036
0.00206
0.00237
0.00094
0.00137
0.00203
0.00206
0.00094
0.00105
0.00132
0.00310
0.00091
0.00094
0.00062
0.00198
0.00357
0.00270
0.00134
0.00180
0.00031
0.00109
0.00100
0.00096
0.00235
0.00239
0.00153
0.00251
0.00171
0.00202
0.00116
0.00129
-0.00008
0.00150
0.00180
0.00227
0.00272
0.00301
0.00096
0.00174
0.00170
0.00132
0.00023
0.00146
0.00237
0.00142
0.00021
0.00160
-0.00115
0.00065
0.00120
0.00107
0.00132
0.00163
0.00116
0.00016
0.00066
0.00146
0.00047
-0.00031
0.00141
0.00137
0.00074
0.00006
-0.00039
0.00181
-0.00023
0.00252
-0.00041
0.00002
0.00056
0.00035
0.00008
0.00078
0.00095
0.00065
0.00011
0.00008
0.00009
-0.00003
0.00005
0.00004
0.00038
0.00006
0.00026
0.00018
0.00025
-0.00009
0.00025
0.00060
0.00028
0.00011
0.00010
0.00038
-0.00006
0.00004
0.00043
0.00011
0.00059
0.00040
0.00041
0.00098
-0.00015
0.00046
0.00022
0.00162
0.00014
0.00084
0.00002
-0.00037
0.00008
-0.00092
0.00265
0.00092
0.00216
0.00125
-0.00092
0.00011
-0.00085
0.00133
0.00171
0.00235
0.00167
0.00128
-0.00011
-0.00001
0.00070
0.00049
0.00058
0.00020
0.00052
0.00045
0.00106
0.00090
0.00109
0.00084
0.00121
0.00097
0.00066
0.00076
0.00089
0.00043
0.00104
0.00095
0.00091
0.00089
0.00044
0.00085
0.00100
0.00052
0.00078
0.00062
0.00100
0.00082
0.00036
0.00047
0.00042
0.00016
0.00024
0.00058
0.00099
0.00030
-0.00001
-0.00074
0.00001
-0.00030
-0.00033
0.00013
0.00022
0.00067
0.00009
0.00089
0.00074
0.00162
0.00014
0.00169
0.00085
0.00073
0.00101
0.00139
0.00226
0.00187
0.00227
0.00208
0.00193
0.00196
0.00174
0.00147
0.00219
0.00190
0.00195
0.00182
0.00242
0.00060
0.00083
0.00050
0.00109
0.00052
0.00102
0.00090
0.00076
0.00072
0.00149
0.00116
0.00160
0.00127
0.00131
0.00127
0.00145
0.00122
0.00204
0.00136
0.00122
0.00187
0.00195
0.00225
0.00356
0.00203
0.00192
0.00322
0.00159
0.00240
0.00249
0.00241
0.00225
0.00186
0.00151
0.00177
0.00159
0.00227
0.00318
0.00302
0.00167
0.00271
0.00100
0.00258
0.00152
0.00247
0.00193
0.00261
0.00168
0.00219
0.00237
0.00282
0.00219
0.00299
0.00200
-0.00001
0.00347
0.00238
0.00274
0.00371
0.00112
0.00231
0.00109
0.00074
0.00302
0.00123
0.00121
0.00237
0.00257
0.00132
0.00092
0.00423
0.00248
0.00198
0.00255
0.00214
0.00240
0.00118
0.00177
0.00151
0.00182
0.00178
0.00243
0.00129
0.00406
0.00296
0.00234
0.00232
0.00331
0.00197
0.00097
0.00137
0.00137
0.00185
0.00137
0.00122
-0.00090
0.00043
0.00041
0.00211
0.00069
-0.00048
0.00086
-0.00111
0.00093
-0.00025
-0.00124
-0.00045
0.00007
-0.00179
0.00117
-0.00045
-0.00157
-0.00026
-0.00057
-0.00153
0.00150
0.00012
0.00178
0.00030
0.00116
0.00201
0.00096
0.00211
0.00083
0.00191
0.00202
0.00134
0.00085
0.00137
0.00102
0.00020
0.00035
0.00139
-0.00082
0.00087
0.00184
0.00134
0.00210
0.00099
0.00286
-0.00022
0.00283
0.00180
-0.00027
0.00050
0.00124
0.00324
0.00285
0.00079
-0.00067
0.00199
0.00201
0.00102
-0.00014
0.00099
0.00206
0.00222
-0.00018
0.00223
0.00070
0.00065
0.00356
-0.00072
0.00166
0.00109
-0.00030
0.00144
0.00070
0.00267
0.00036
0.00076
-0.00009
0.00172
-0.00018
-0.00009
0.00067
0.00187
0.00148
0.00138
0.00210
0.00081
0.00137
0.00269
0.00031
0.00272
0.00140
-0.00005
0.00199
0.00109
0.00070
0.00167
0.00061
0.00105
0.00009
0.00054
0.00171
0.00098
-0.00076
0.00071
-0.00074
0.00027
0.00046
0.00028
-0.00137
0.00026
0.00153
0.00036
0.00048
0.00267
0.00090
-0.00042
-0.00163
0.00019
0.00108
0.00027
0.00132
0.00157
0.00113
0.00163
0.00217
-0.00015
0.00028
-0.00000
0.00009
0.00027
0.00047
-0.00008
-0.00044
-0.00041
-0.00084
0.00139
0.00002
0.00046
0.00043
0.00116
-0.00077
0.00111
-0.00038
0.00072
-0.00107
0.00053
0.00082
0.00044
-0.00073
0.00073
0.00058
0.00106
-0.00022
0.00021
0.00068
0.00145
-0.00144
0.00127
0.00030
0.00022
0.00042
0.00021
0.00023
0.00038
-0.00002
0.00010
0.00102
0.00076
0.00042
-0.00003
0.00001
-0.00005
0.00109
-0.00028
0.00037
0.00039
0.00017
0.00073
0.00008
-0.00005
0.00057
-0.00074
-0.00052
0.00029
0.00023
0.00060
0.00065
0.00068
0.00070
0.00075
0.00074
0.00080
0.00081
0.00087
0.00087
0.00094
0.00096
0.00095
0.00099
0.00105
0.00111
0.00114
0.00121
0.00128
0.00148
0.00133
0.00138
0.00210
0.00198
0.00165
0.00152
0.00160
0.00179
0.00172
0.00176
0.00171
0.00170
0.00177
0.00172
0.00183
0.00187
0.00200
0.00207
0.00154
0.00161
0.00164
0.00165
0.00171
0.00163
0.00149
0.00183
0.00166
0.00150
0.00199
0.00192
0.00183
0.00184
0.00180
0.00178
0.00176
0.00186
0.00189
0.00185
0.00179
0.00210
0.00159
0.00202
0.00178
0.00183
0.00200
0.00160
0.00178
0.00182
0.00204
0.00205
0.00211
0.00300
0.00304
0.00321
0.00254
0.00247
0.00295
0.00267
0.00275
0.00248
0.00303
0.00236
0.00248
0.00247
0.00261
0.00235
0.00251
0.00285
0.00287
0.00282
0.00314
0.00215
0.00236
0.00241
0.00207
0.00183
0.00211
0.00249
0.00198
0.00201
0.00191
0.00242
0.00181
0.00223
0.00178
0.00229
0.00205
0.00167
0.00185
0.00240
0.00241
0.00164
0.00035
0.00383
0.00154
0.00257
0.00246
0.00218
-0.00116
0.00244
0.00178
0.00140
0.00312
0.00287
0.00277
-0.00134
0.00027
0.00242
0.00262
0.00075
0.00268
0.00191
0.00300
0.00134
0.00060
0.00265
-0.00005
0.00278
0.00210
0.00276
0.00295
0.00184
0.00278
0.00361
0.00221
0.00222
0.00139
0.00133
0.00126
0.00100
0.00306
0.00337
0.00199
0.00147
0.00263
0.00265
0.00206
0.00107
0.00208
0.00071
0.00354
0.00144
0.00032
0.00011
0.00153
0.00022
-0.00046
-0.00229
0.00017
-0.00129
0.00248
0.00071
0.00139
-0.00032
0.00014
0.00023
0.00086
-0.00144
0.00028
0.00025
0.00063
0.00230
0.00078
0.00191
0.00205
0.00093
0.00240
0.00084
0.00039
0.00182
0.00034
0.00245
0.00102
-0.00056
0.00154
0.00168
0.00162
0.00068
0.00084
0.00157
0.00124
0.00142
0.00053
0.00121
-0.00005
0.00084
0.00012
0.00016
-0.00051
0.00081
0.00121
0.00080
0.00007
-0.00020
0.00162
0.00288
0.00037
0.00157
-0.00099
-0.00034
0.00032
-0.00067
-0.00001
0.00123
0.00124
-0.00034
0.00078
0.00156
0.00127
0.00142
-0.00026
0.00157
0.00133
0.00157
-0.00035
0.00129
0.00099
0.00028
0.00172
0.00167
0.00162
0.00174
0.00156
0.00164
0.00163
0.00156
0.00178
0.00164
0.00160
0.00134
0.00138
0.00142
0.00156
0.00213
0.00194
0.00172
0.00163
0.00176
0.00177
0.00177
0.00161
0.00135
0.00174
0.00177
0.00174
0.00184
0.00163
0.00184
0.00173
0.00174
0.00179
0.00210
0.00229
0.00238
0.00218
0.00227
0.00209
0.00210
0.00215
0.00224
0.00218
0.00224
0.00270
0.00110
0.00102
0.00042
0.00095
0.00170
0.00173
0.00120
0.00176
0.00097
0.00159
0.00120
0.00126
0.00154
0.00192
0.00136
0.00186
0.00228
0.00072
0.00178
0.00143
0.00142
0.00176
0.00086
0.00118
0.00111
0.00087
0.00130
0.00193
0.00114
-0.00088
0.00028
0.00174
0.00184
0.00158
0.00180
0.00214
0.00264
0.00227
0.00267
0.00022
0.00089
0.00054
0.00287
0.00111
0.00097
0.00072
0.00145
0.00119
0.00087
0.00128
0.00034
-0.00033
0.00151
0.00126
0.00074
0.00038
0.00100
0.00019
0.00022
0.00215
-0.00018
0.00118
0.00089
0.00072
0.00206
-0.00025
0.00301
0.00218
0.00267
0.00251
0.00223
0.00273
0.00335
0.00297
0.00199
0.00244
0.00304
0.00217
0.00326
0.00221
0.00223
0.00225
0.00233
0.00236
0.00218
0.00235
0.00348
0.00240
0.00250
0.00250
0.00193
0.00166
0.00402
0.00215
0.00289
0.00358
0.00242
0.00216
0.00278
0.00183
0.00253
0.00266
0.00266
0.00178
0.00172
0.00180
-0.00001
0.00050
0.00021
0.00158
-0.00027
0.00167
0.00054
-0.00010
0.00066
0.00074
-0.00034
-0.00020
0.00039
-0.00059
0.00110
0.00107
0.00001
-0.00014
0.00266
0.00043
-0.00005
0.00107
0.00076
-0.00105
0.00147
0.00066
0.00038
0.00069
-0.00001
0.00030
0.00098
-0.00056
0.00107
0.00093
0.00094
0.00133
0.00130
0.00173
0.00204
0.00203
0.00165
0.00107
0.00134
0.00059
0.00101
0.00155
0.00126
0.00082
0.00185
0.00148
0.00158
0.00118
0.00091
0.00122
0.00202
0.00203
0.00131
0.00189
0.00168
0.00152
0.00154
0.00165
0.00188
0.00247
0.00408
0.00411
0.00279
0.00209
0.00288
0.00283
0.00072
0.00229
0.00288
0.00132
0.00239
0.00091
0.00173
0.00266
0.00143
0.00122
0.00111
0.00177
0.00081
0.00028
0.00111
0.00064
0.00076
0.00119
-0.00082
0.00077
0.00060
0.00045
0.00051
0.00016
0.00041
0.00034
0.00063
0.00058
0.00072
0.00075
0.00063
-0.00036
-0.00030
-0.00033
-0.00040
-0.00028
-0.00007
-0.00044
0.00172
0.00172
0.00051
0.00018
-0.00006
0.00192
-0.00122
-0.00034
0.00140
-0.00055
-0.00139
0.00039
0.00016
0.00064
-0.00113
-0.00063
0.00019
-0.00005
0.00225
-0.00048
0.00058
0.00064
0.00030
0.00012
0.00066
0.00012
0.00090
-0.00084
0.00098
-0.00130
-0.00123
-0.00137
0.00141
-0.00040
0.00045
0.00059
0.00104
-0.00033
-0.00007
-0.00027
0.00031
0.00021
-0.00045
-0.00040
0.00002
-0.00010
-0.00034
0.00043
-0.00003
-0.00000
0.00012
0.00017
-0.00020
0.00029
0.00041
0.00006
0.00101
0.00044
0.00030
0.00118
0.00036
0.00003
0.00090
-0.00069
-0.00097
0.00007
0.00104
0.00237
0.00148
0.00150
0.00161
0.00197
0.00147
0.00101
-0.00005
0.00150
0.00149
0.00111
0.00176
0.00131
0.00101
0.00111
0.00076
0.00118
0.00183
0.00019
-0.00017
-0.00005
-0.00019
-0.00016
0.00004
-0.00014
0.00011
-0.00017
0.00020
-0.00015
-0.00080
-0.00013
0.00003
0.00047
0.00013
0.00034
0.00101
0.00095
0.00111
0.00077
-0.00031
-0.00006
-0.00075
-0.00002
0.00242
0.00228
0.00165
0.00176
0.00133
0.00178
0.00247
0.00056
0.00177
0.00067
0.00195
0.00142
0.00081
0.00174
0.00191
0.00237
0.00149
0.00122
0.00138
0.00229
0.00098
0.00182
0.00182
0.00240
0.00105
0.00264
0.00011
0.00104
0.00003
0.00041
0.00149
0.00129
0.00235
0.00001
0.00197
0.00030
0.00119
0.00158
0.00068
0.00140
0.00063
0.00073
-0.00040
-0.00009
0.00059
-0.00037
0.00089
-0.00037
0.00002
-0.00005
0.00111
0.00005
0.00048
-0.00096
-0.00082
-0.00138
-0.00102
-0.00056
0.00042
0.00129
-0.00070
-0.00070
-0.00037
-0.00048
-0.00043
0.00058
0.00064
-0.00060
-0.00057
-0.00024
-0.00046
-0.00111
0.00070
-0.00224
-0.00292
0.00125
0.00183
0.00105
0.00146
0.00128
0.00123
0.00095
0.00092
0.00097
0.00092
0.00135
0.00068
0.00064
0.00070
0.00112
0.00118
0.00113
0.00134
0.00134
0.00136
0.00170
0.00113
0.00101
0.00156
0.00104
0.00137
0.00004
0.00169
0.00051
0.00062
0.00206
0.00111
0.00176
0.00275
0.00116
0.00356
0.00170
0.00112
0.00129
0.00117
0.00220
0.00255
0.00078
0.00130
0.00199
0.00156
0.00072
0.00208
0.00202
0.00279
0.00142
0.00344
0.00077
-0.00030
-0.00022
-0.00010
0.00253
0.00068
-0.00027
0.00151
0.00223
0.00076
0.00048
-0.00001
-0.00118
0.00060
0.00089
0.00087
-0.00125
0.00024
-0.00048
0.00016
-0.00045
-0.00139
-0.00002
0.00165
0.00135
0.00048
-0.00040
-0.00031
0.00051
-0.00041
0.00040
-0.00074
-0.00055
0.00103
0.00007
0.00047
0.00111
0.00203
0.00039
0.00021
-0.00185
0.00110
-0.00050
0.00039
-0.00093
-0.00024
-0.00076
0.00192
0.00168
0.00067
0.00286
0.00030
0.00197
-0.00030
-0.00011
0.00107
0.00202
0.00097
0.00106
0.00080
-0.00001
0.00023
0.00235
0.00040
0.00324
0.00033
0.00102
0.00069
0.00176
0.00218
0.00056
0.00206
-0.00059
-0.00129
-0.00163
-0.00053
-0.00121
0.00033
-0.00057
0.00076
0.00168
0.00006
0.00034
0.00015
-0.00013
-0.00039
0.00144
0.00135
0.00037
0.00149
0.00032
-0.00033
0.00094
0.00028
-0.00055
0.00084
0.00152
0.00154
0.00125
0.00143
0.00166
0.00121
0.00152
0.00132
0.00122
0.00116
0.00148
0.00051
-0.00014
-0.00027
-0.00091
-0.00132
-0.00097
-0.00060
-0.00132
-0.00029
0.00090
0.00039
0.00022
0.00050
-0.00001
0.00065
-0.00105
0.00111
0.00104
0.00044
-0.00042
-0.00120
-0.00044
0.00049
0.00056
0.00028
0.00032
0.00062
0.00008
0.00079
0.00054
-0.00003
0.00015
0.00088
0.00017
0.00024
0.00047
0.00020
0.00019
0.00066
0.00000
0.00028
0.00039
-0.00002
0.00032
0.00072
0.00003
0.00050
-0.00013
-0.00022
-0.00048
-0.00006
0.00061
0.00203
0.00153
0.00277
0.00110
0.00240
0.00124
0.00216
0.00211
0.00337
0.00239
0.00158
0.00285
0.00189
0.00279
0.00152
0.00192
0.00175
0.00237
0.00183
0.00214
0.00291
0.00176
0.00188
0.00224
0.00148
0.00107
0.00178
0.00199
0.00076
0.00194
0.00153
0.00158
0.00206
0.00121
0.00232
0.00166
0.00157
0.00218
0.00228
0.00247
0.00209
0.00120
0.00173
0.00157
0.00104
0.00188
0.00138
0.00101
0.00276
0.00155
0.00010
-0.00026
0.00036
0.00011
0.00044
0.00012
0.00117
0.00100
0.00116
0.00294
0.00266
0.00062
0.00069
-0.00092
0.00241
-0.00018
0.00085
0.00032
-0.00054
0.00104
0.00207
-0.00074
0.00023
0.00101
-0.00132
-0.00075
0.00047
-0.00048
0.00043
0.00047
0.00165
0.00081
0.00086
0.00133
0.00071
0.00181
0.00261
0.00282
0.00067
0.00028
0.00153
0.00129
0.00182
0.00068
0.00153
0.00102
0.00049
-0.00015
0.00036
0.00079
-0.00055
0.00175
0.00078
0.00071
-0.00067